# vtk DataFile Version 3.0
vtk output
ASCII
DATASET STRUCTURED_GRID
DIMENSIONS 20 30 40
POINTS 24000 float
3.90799e-16 9.85395e-06 0.00041631 0.00176643 0.00364602 0.0259133 0.000922976 0.00487217 0.0552675 
0.00454433 0.00233178 0.0833129 0.00931732 0.0056806 0.105561 0.000508319 0.00767051 0.125189 
0.0025236 0.00298197 0.15876 0.00531557 0.00920261 0.180154 0.00810429 0.0018842 0.208863 
0.00570614 0.000767746 0.233153 0.00984891 0.00118352 0.258939 0.00784484 0.00100916 0.277533 
0.000198417 0.00378377 0.306789 0.00680923 0.00752707 0.325062 0.00624407 0.00126462 0.356176 
0.00770928 0.00186536 0.379967 0.005095 0.00315939 0.407017 0.00367247 0.00876312 0.42871 
0.00525252 0.00427835 0.455427 0.00667979 0.00171142 0.483308 0.00861905 0.0326922 0.000525795 
0.0096673 0.0283428 0.025821 0.00270315 0.0257426 0.0567623 0.00810159 0.0296421 0.0806919 
0.00512203 0.0308651 0.107388 0.00871689 0.0307797 0.134647 0.00333529 0.0289283 0.151769 
0.00111869 0.0335268 0.183112 0.00954887 0.0340428 0.201389 0.00686187 0.0262699 0.225041 
5.02785e-06 0.0269295 0.255868 0.00374959 0.0252679 0.279648 0.00785343 0.0294223 0.302879 
0.00853353 0.0302597 0.332284 0.00266314 0.0328348 0.35468 0.00196997 0.0294718 0.382284 
0.00966093 0.0325684 0.404661 0.00868966 0.0263404 0.433461 0.000180877 0.0344085 0.456701 
0.00799972 0.0264322 0.481105 0.00908283 0.0577441 0.00366065 0.00944288 0.0588482 0.0294517 
0.00163028 0.0542482 0.0547985 0.000311283 0.0560843 0.0829226 0.00182497 0.0552512 0.108988 
0.0030879 0.0594263 0.12888 0.00930512 0.0591138 0.153377 0.00532812 0.0570208 0.18471 
0.00768085 0.0575194 0.200909 0.00853967 0.0517464 0.225198 0.00419054 0.0529637 0.253782 
0.00418716 0.0513845 0.278808 0.0029978 0.0502101 0.302388 0.000371094 0.0522106 0.330254 
0.00494525 0.0588252 0.357738 0.000590025 0.051198 0.380478 0.00341916 0.0545681 0.405881 
0.0058515 0.0506993 0.433189 0.00403161 0.0558548 0.451912 0.00892277 0.0517633 0.477077 
0.00115748 0.0765891 0.00992644 0.00681571 0.083118 0.0314222 0.00329342 0.0823755 0.0582348 
0.00721261 0.0815798 0.0785877 0.00610365 0.07915 0.10815 0.00773965 0.0777431 0.125447 
0.00601041 0.0801409 0.156302 0.00180893 0.077785 0.179525 0.00642986 0.0824283 0.204137 
0.00618052 0.0811829 0.233544 0.00181457 0.0780793 0.250233 9.18198e-05 0.0845145 0.284908 
0.0020494 0.0810409 0.309357 0.00559567 0.0804687 0.329391 0.00449752 0.0780681 0.352008 
0.002158 0.075499 0.377096 0.00574563 0.0841482 0.404156 0.00654159 0.078557 0.430867 
0.00391946 0.0753385 0.452855 0.00091604 0.0794438 0.484259 0.00921284 0.106059 0.00861146 
0.000147172 0.106867 0.0334457 0.00129647 0.100597 0.0501307 0.00391159 0.108657 0.0751506 
0.00924288 0.108867 0.106621 0.00654911 0.100763 0.12593 3.25213e-05 0.105267 0.157898 
0.00654019 0.105459 0.182984 0.00726753 0.102533 0.202552 0.00138354 0.104829 0.229676 
0.00100876 0.105042 0.258584 0.000100477 0.108216 0.284643 0.000194594 0.109296 0.300631 
0.000379622 0.101903 0.327767 0.00447314 0.106494 0.351511 0.00487155 0.106497 0.380343 
0.00356802 0.103941 0.40722 0.00724702 0.103061 0.426066 0.0091078 0.107409 0.452391 
0.00651344 0.103684 0.475262 0.00849258 0.125418 0.000561211 0.00426039 0.129797 0.0300169 
0.00980527 0.131075 0.0591266 0.00750416 0.132138 0.0847113 0.000292117 0.127643 0.100183 
0.000806761 0.126546 0.126144 0.00756538 0.134382 0.151288 0.00592612 0.126225 0.180992 
0.000658728 0.12756 0.204125 0.00948387 0.128535 0.22517 0.00973425 0.132624 0.25862 
0.0040513 0.133679 0.275368 0.00208479 0.129233 0.309848 0.00564353 0.130763 0.329682 
0.0046416 0.132611 0.353021 0.00417256 0.125985 0.376368 0.00698138 0.126804 0.408931 
0.00730879 0.128023 0.426412 0.008241 0.129422 0.455901 0.00977622 0.130027 0.483977 
0.00724808 0.152613 0.00455035 0.00261958 0.159605 0.0251693 0.00940439 0.15902 0.0509787 
0.00521122 0.150847 0.082954 0.0086891 0.150958 0.108803 6.00615e-05 0.15202 0.129726 
0.00644231 0.15934 0.150984 0.00570898 0.155076 0.181594 0.00892915 0.157358 0.206893 
0.00809339 0.152404 0.232635 0.00768728 0.155424 0.254811 0.0041438 0.150736 0.280267 
0.00507623 0.157516 0.301311 9.37614e-05 0.15764 0.326012 0.00965288 0.150892 0.351159 
0.00896274 0.157452 0.377185 0.0058546 0.152408 0.408845 0.00396093 0.150565 0.434272 
0.0045242 0.158708 0.452302 0.00488962 0.155713 0.483529 0.00218364 0.184205 0.000386261 
0.0040839 0.175538 0.0260516 0.00529782 0.18073 0.0511449 0.000425676 0.180009 0.0822475 
0.00494231 0.178461 0.100351 0.00366505 0.184156 0.130049 0.00861768 0.184235 0.150153 
0.00289962 0.177394 0.182165 0.00101573 0.182774 0.202447 0.00431663 0.180916 0.230145 
0.00768635 0.182216 0.258036 0.00740518 0.180062 0.283183 0.000592642 0.180759 0.308617 
0.00551174 0.183287 0.326241 0.00710174 0.175016 0.350318 0.00291344 0.181714 0.378002 
0.00433837 0.177733 0.401243 0.00134329 0.176049 0.42916 0.00820584 0.177601 0.451483 
0.000138782 0.177213 0.478529 0.0076193 0.204212 0.00686691 0.00526691 0.203299 0.0264364 
0.00375358 0.207447 0.0572988 0.00731954 0.201738 0.080567 0.00685514 0.208705 0.105584 
0.00344739 0.205357 0.134623 0.00923171 0.207527 0.15687 0.00336166 0.203607 0.182079 
0.00662554 0.203975 0.200137 0.00407951 0.206675 0.227194 0.000888169 0.206176 0.250192 
0.00217242 0.202061 0.278745 0.00399823 0.202939 0.305243 0.00792152 0.203971 0.332271 
0.00697282 0.20632 0.35123 0.00733361 0.201687 0.375281 0.0021649 0.201708 0.401701 
0.00528646 0.203129 0.434012 0.00443719 0.200792 0.45137 0.0053529 0.206428 0.483421 
0.00969753 0.228404 0.00367711 0.00712868 0.225456 0.0262477 0.00258288 0.234652 0.0583749 
0.00687851 0.231887 0.0830877 0.0052461 0.230832 0.106839 0.00460254 0.232598 0.127763 
0.00316928 0.22566 0.151484 0.00472621 0.227396 0.184448 0.0033058 0.227609 0.201713 
0.00873876 0.233638 0.229785 0.00216758 0.232728 0.251027 0.00207741 0.22731 0.276662 
0.0026502 0.233045 0.301085 0.00258255 0.233796 0.327152 0.00665078 0.231258 0.357925 
0.00345951 0.231304 0.377505 0.000359759 0.23307 0.404051 0.00438404 0.232563 0.432843 
0.00480335 0.232159 0.453877 0.000281683 0.229175 0.484008 0.00612354 0.258342 0.00757822 
0.00606587 0.258614 0.0290571 0.0023763 0.255848 0.0510524 0.00490458 0.25845 0.0820413 
0.00104651 0.25693 0.100331 0.00426893 0.257323 0.127751 0.00335741 0.25314 0.152184 
0.00607551 0.255795 0.175706 0.0047934 0.251609 0.202929 0.00657304 0.259967 0.22593 
0.000516261 0.250225 0.259335 0.00063295 0.257123 0.280561 0.00412148 0.259882 0.304604 
0.00699764 0.256871 0.33035 0.00576024 0.255423 0.35601 0.00371753 0.258978 0.377456 
0.00412392 0.255702 0.402901 0.00832116 0.252679 0.427619 0.0049332 0.250659 0.451095 
0.00233001 0.256175 0.482036 0.00258866 0.283032 0.00128187 0.00404914 0.283084 0.0266127 
0.00443031 0.28191 0.050291 0.00542918 0.280081 0.0841338 0.00438811 0.28364 0.108334 
0.00665999 0.283722 0.134146 0.00151167 0.275923 0.156748 0.00131121 0.283959 0.178155 
0.000705783 0.280814 0.202138 0.00693284 0.27807 0.23305 0.00878733 0.282438 0.255773 
0.00867274 0.283455 0.281466 0.000977268 0.281238 0.30804 0.00930262 0.279449 0.326026 
0.00942635 0.283508 0.351359 0.00841756 0.281832 0.380529 0.00981669 0.278488 0.407534 
0.00209897 0.279223 0.433543 0.000214089 0.277549 0.455324 0.00627505 0.282739 0.481277 
0.00790272 0.301125 0.00887194 0.00773443 0.308572 0.0297974 0.00774054 0.302856 0.0529172 
0.00197939 0.30297 0.0797654 0.00313978 0.304048 0.105905 0.00415645 0.308673 0.125469 
0.000438109 0.307625 0.15435 0.00490307 0.305333 0.184583 0.00456499 0.309637 0.203852 
0.00463136 0.300365 0.228326 0.00868259 0.309457 0.257028 0.00240648 0.301985 0.283619 
0.00695628 0.301694 0.308548 0.00186674 0.300614 0.334182 0.00310355 0.30191 0.352895 
0.0099856 0.302484 0.38349 0.00427422 0.304577 0.407105 0.00500323 0.303006 0.428407 
9.00238e-05 0.30828 0.453666 0.00876902 0.302737 0.481086 0.00764369 0.327182 0.00194412 
0.00373621 0.331549 0.027019 0.00428968 0.329375 0.050582 0.00870058 0.331661 0.0780616 
0.00110096 0.33428 0.109395 0.00410016 0.327134 0.131991 0.00284144 0.32793 0.156332 
0.00547851 0.330873 0.182473 0.000689482 0.334568 0.207272 0.000819872 0.33469 0.226068 
0.000906413 0.3294 0.253802 0.00711056 0.334376 0.277908 0.00941991 0.326747 0.300285 
0.00387987 0.334453 0.332143 0.00461379 0.328365 0.35826 0.00585883 0.3339 0.382036 
0.00919677 0.333902 0.406314 0.00357848 0.325677 0.432922 0.00625854 0.32957 0.457497 
0.00292908 0.331228 0.480277 0.00797972 0.356979 0.00237892 0.00203092 0.35578 0.0305656 
0.00900761 0.359858 0.0543803 0.00401726 0.350106 0.07978 0.00545855 0.350493 0.104752 
0.00729667 0.352353 0.128574 0.00961916 0.350746 0.151512 0.0017388 0.356794 0.17693 
0.0074904 0.350831 0.209715 0.00318164 0.357075 0.23016 0.00897557 0.359166 0.251463 
0.00698158 0.35829 0.282478 0.00992856 0.358301 0.307788 0.00667334 0.356651 0.327486 
0.00138917 0.355826 0.353795 0.00175742 0.359994 0.380988 0.0075652 0.359919 0.406169 
0.000997007 0.350896 0.433683 0.00556957 0.35562 0.452256 0.00556367 0.35816 0.480844 
0.00735675 0.377932 0.00918379 0.00473664 0.376577 0.0266579 0.00734353 0.383276 0.0597466 
0.000460466 0.375776 0.0822827 0.00538749 0.384228 0.100717 0.00237515 0.384274 0.128094 
0.00728931 0.384997 0.152552 0.00484168 0.37627 0.180116 0.0099839 0.383528 0.203111 
0.00421436 0.380962 0.228278 0.00457622 0.379699 0.258685 0.00552036 0.381354 0.275552 
0.00469349 0.377113 0.304587 0.00090265 0.382257 0.333641 0.00177029 0.382643 0.352888 
0.00352192 0.384625 0.375054 0.00250467 0.377652 0.408769 0.000906464 0.383994 0.428219 
0.00805478 0.382229 0.454796 0.00260901 0.379801 0.480038 0.00957014 0.406396 0.000680288 
0.00611262 0.404317 0.027135 0.000191862 0.404358 0.0590534 0.00574822 0.403506 0.0775925 
0.00301015 0.408938 0.100393 0.00846019 0.400566 0.132246 0.000181514 0.40159 0.150972 
0.00363671 0.405591 0.181711 0.00316299 0.405178 0.208196 0.00791155 0.408434 0.230207 
0.00561588 0.404041 0.257734 0.0091708 0.406664 0.275966 0.00831045 0.403976 0.300178 
[...]
CELL_DATA 21489
SCALARS scalars double
LOOKUP_TABLE default
1 0.975 0.95 0.925 0.9 0.875 0.85 0.825 0.8 
0.775 0.75 0.725 0.7 0.675 0.65 0.625 0.6 0.575 
0.55 0.975 0.964645 0.944098 0.920943 0.896922 0.872525 0.847931 0.823223 
0.798444 0.773615 0.748753 0.723866 0.69896 0.67404 0.649108 0.624168 0.59922 
0.574265 0.549306 0.95 0.944098 0.929289 0.909861 0.888197 0.865371 0.841886 
0.817997 0.793845 0.769511 0.745049 0.720492 0.695862 0.671176 0.646447 0.621681 
0.596887 0.572069 0.547231 0.925 0.920943 0.909861 0.893934 0.875 0.854226 
0.832295 0.809606 0.7864 0.762829 0.738992 0.714956 0.690767 0.666458 0.642054 
0.617574 0.593029 0.568433 0.543793 0.9 0.896922 0.888197 0.875 0.858579 
0.839922 0.819722 0.798444 0.776393 0.753779 0.730742 0.707383 0.683772 0.659963 
0.635995 0.611896 0.587689 0.563394 0.539023 0.875 0.872525 0.865371 0.854226 
0.839922 0.823223 0.804744 0.784942 0.76415 0.742609 0.720492 0.697924 0.675 
0.65179 0.628348 0.604715 0.580924 0.556999 0.532961 0.85 0.847931 0.841886 
0.832295 0.819722 0.804744 0.787868 0.769511 0.75 0.729584 0.708452 0.686751 
0.66459 0.642054 0.619211 0.596113 0.5728 0.549306 0.525658 0.825 0.823223 
0.817997 0.809606 0.798444 0.784942 0.769511 0.752513 0.734246 0.714956 0.694836 
0.67404 0.652689 0.630879 0.608688 0.586176 0.563394 0.540381 0.51717 0.8 
0.798444 0.793845 0.7864 0.776393 0.76415 0.75 0.734246 0.717157 0.69896 
0.679844 0.659963 0.639445 0.618392 0.596887 0.575 0.552786 0.530293 0.507557 
0.775 0.773615 0.769511 0.762829 0.753779 0.742609 0.729584 0.714956 0.69896 
0.681802 0.663659 0.644683 0.625 0.604715 0.583917 0.562679 0.541061 0.519115 
0.496885 0.75 0.748753 0.745049 0.738992 0.730742 0.720492 0.708452 0.694836 
0.679844 0.663659 0.646447 0.628348 0.609488 0.58997 0.569884 0.549306 0.528301 
0.506923 0.485218 0.725 0.723866 0.720492 0.714956 0.707383 0.697924 0.686751 
0.67404 0.659963 0.644683 0.628348 0.611091 0.593029 0.574265 0.554888 0.534973 
0.514588 0.493789 0.472624 0.7 0.69896 0.695862 0.690767 0.683772 0.675 
0.66459 0.652689 0.639445 0.625 0.609488 0.593029 0.575736 0.557705 0.539023 
0.519766 0.5 0.479784 0.459167 0.675 0.67404 0.671176 0.666458 0.659963 
0.65179 0.642054 0.630879 0.618392 0.604715 0.58997 0.574265 0.557705 0.540381 
0.522376 0.503764 0.484612 0.464977 0.44491 0.65 0.649108 0.646447 0.642054 
0.635995 0.628348 0.619211 0.608688 0.596887 0.583917 0.569884 0.554888 0.539023 
0.522376 0.505025 0.487043 0.468493 0.449432 0.429912 0.625 0.624168 0.621681 
0.617574 0.611896 0.604715 0.596113 0.586176 0.575 0.562679 0.549306 0.534973 
0.519766 0.503764 0.487043 0.46967 0.451707 0.433211 0.414231 0.6 0.59922 
0.596887 0.593029 0.587689 0.580924 0.5728 0.563394 0.552786 0.541061 0.528301 
0.514588 0.5 0.484612 0.468493 0.451707 0.434315 0.416369 0.39792 0.575 
0.574265 0.572069 0.568433 0.563394 0.556999 0.549306 0.540381 0.530293 0.519115 
0.506923 0.493789 0.479784 0.464977 0.449432 0.433211 0.416369 0.398959 0.381029 
0.55 0.549306 0.547231 0.543793 0.539023 0.532961 0.525658 0.51717 0.507557 
0.496885 0.485218 0.472624 0.459167 0.44491 0.429912 0.414231 0.39792 0.381029 
0.363604 0.525 0.524343 0.522376 0.519115 0.514588 0.508828 0.501879 0.493789 
0.484612 0.474405 0.463227 0.451138 0.438195 0.424457 0.409979 0.394814 0.379013 
0.362623 0.345687 0.5 0.499375 0.497506 0.494406 0.490098 0.484612 0.477985 
0.470259 0.461484 0.451707 0.440983 0.429364 0.416905 0.403657 0.389672 0.375 
0.359688 0.34378 0.327319 0.475 0.474405 0.472624 0.46967 0.465561 0.460324 
0.453992 0.446601 0.438195 0.428817 0.418515 0.407337 0.395331 0.382546 0.369029 
0.354826 0.339981 0.324537 0.308534 0.45 0.449432 0.447732 0.44491 0.440983 
0.435974 0.429912 0.42283 0.414765 0.405757 0.395848 0.385081 0.373502 0.361153 
0.34808 0.334324 0.319926 0.304928 0.289366 0.425 0.424457 0.42283 0.420129 
0.416369 0.41157 0.405757 0.398959 0.39121 0.382546 0.373003 0.362623 0.351444 
0.339508 0.326854 0.313523 0.299554 0.284983 0.269846 0.4 0.399479 0.39792 
0.395331 0.391724 0.387117 0.381534 0.375 0.367544 0.3592 0.35 0.339981 
0.32918 0.317633 0.305378 0.292451 0.27889 0.264728 0.25 0.375 0.3745 
0.373003 0.370516 0.367051 0.362623 0.357252 0.350962 0.34378 0.335733 0.326854 
0.317175 0.306729 0.29555 0.283673 0.271131 0.257959 0.244189 0.229854 0.35 
0.349519 0.34808 0.345687 0.342353 0.33809 0.332917 0.326854 0.319926 0.312159 
0.303581 0.29422 0.284109 0.273278 0.261759 0.249583 0.236783 0.223389 0.209431 
0.325 0.324537 0.323151 0.320846 0.317633 0.313523 0.308534 0.302684 0.295994 
0.288488 0.280191 0.271131 0.261336 0.250834 0.239655 0.227828 0.215382 0.202347 
0.188751 0.3 0.299554 0.298217 0.295994 0.292893 0.288927 0.284109 0.278457 
0.271989 0.264728 0.256697 0.24792 0.238423 0.228233 0.217376 0.205881 0.193774 
0.181083 0.167834 0.975 0.964645 0.944098 0.920943 0.896922 0.872525 0.847931 
0.823223 0.798444 0.773615 0.748753 0.723866 0.69896 0.67404 0.649108 0.624168 
0.59922 0.574265 0.549306 0.964645 0.956699 0.938763 0.917084 0.893934 0.870096 
0.84589 0.821464 0.796899 0.772239 0.747512 0.722737 0.697924 0.673083 0.648219 
0.623337 0.598441 0.573532 0.548613 0.944098 0.938763 0.925 0.906459 0.885436 
0.863069 0.839922 0.816288 0.792334 0.76816 0.743826 0.719376 0.694836 0.670227 
0.645564 0.620856 0.596113 0.571339 0.546541 0.920943 0.917084 0.906459 0.891028 
0.872525 0.852098 0.830442 0.807971 0.784942 0.761515 0.737798 0.713862 0.689758 
0.665523 0.641182 0.616757 0.592262 0.56771 0.543108 0.896922 0.893934 0.885436 
0.872525 0.856386 0.837981 0.817997 0.796899 0.775 0.752513 0.729584 0.706316 
0.682786 0.659045 0.635137 0.611091 0.586932 0.562679 0.538345 0.872525 0.870096 
0.863069 0.852098 0.837981 0.821464 0.80315 0.783494 0.762829 0.741398 0.719376 
0.696891 0.67404 0.650894 0.627508 0.603926 0.580179 0.556294 0.532293 0.847931 
0.84589 0.839922 0.830442 0.817997 0.80315 0.7864 0.76816 0.748753 0.72843 
0.707383 0.685755 0.663659 0.641182 0.618392 0.59534 0.572069 0.548613 0.525 
0.823223 0.821464 0.816288 0.807971 0.796899 0.783494 0.76816 0.751253 0.733073 
0.713862 0.693814 0.673083 0.65179 0.630034 0.60789 0.585422 0.562679 0.539701 
0.516523 0.798444 0.796899 0.792334 0.784942 0.775 0.762829 0.748753 0.733073 
0.716055 0.697924 0.678869 0.659045 0.638579 0.617574 0.596113 0.574265 0.552088 
0.529628 0.506923 0.773615 0.772239 0.76816 0.761515 0.752513 0.741398 0.72843 
0.713862 0.697924 0.680821 0.662732 0.643805 0.624168 0.603926 0.583167 0.561965 
0.540381 0.518466 0.496264 0.748753 0.747512 0.743826 0.737798 0.729584 0.719376 
0.707383 0.693814 0.678869 0.662732 0.645564 0.627508 0.608688 0.589208 0.569158 
0.548613 0.527639 0.50629 0.484612 0.723866 0.722737 0.719376 0.713862 0.706316 
0.696891 0.685755 0.673083 0.659045 0.643805 0.627508 0.610289 0.592262 0.573532 
0.554186 0.534302 0.513944 0.493172 0.472032 0.69896 0.697924 0.694836 0.689758 
0.682786 0.67404 0.663659 0.65179 0.638579 0.624168 0.608688 0.592262 0.575 
0.556999 0.538345 0.519115 0.499375 0.479183 0.45859 0.67404 0.673083 0.670227 
0.665523 0.659045 0.650894 0.641182 0.630034 0.617574 0.603926 0.589208 0.573532 
0.556999 0.539701 0.521722 0.503135 0.484006 0.464393 0.444347 0.649108 0.648219 
0.645564 0.641182 0.635137 0.627508 0.618392 0.60789 0.596113 0.583167 0.569158 
0.554186 0.538345 0.521722 0.504394 0.486434 0.467905 0.448865 0.429364 0.624168 
0.623337 0.620856 0.616757 0.611091 0.603926 0.59534 0.585422 0.574265 0.561965 
0.548613 0.534302 0.519115 0.503135 0.486434 0.469081 0.451138 0.43266 0.413698 
0.59922 0.598441 0.596113 0.592262 0.586932 0.580179 0.572069 0.562679 0.552088 
0.540381 0.527639 0.513944 0.499375 0.484006 0.467905 0.451138 0.433762 0.415834 
0.397401 0.574265 0.573532 0.571339 0.56771 0.562679 0.556294 0.548613 0.539701 
0.529628 0.518466 0.50629 0.493172 0.479183 0.464393 0.448865 0.43266 0.415834 
0.39844 0.380524 0.549306 0.548613 0.546541 0.543108 0.538345 0.532293 0.525 
0.516523 0.506923 0.496264 0.484612 0.472032 0.45859 0.444347 0.429364 0.413698 
0.397401 0.380524 0.363113 0.524343 0.523686 0.521722 0.518466 0.513944 0.508192 
0.501252 0.493172 0.484006 0.473811 0.462645 0.450568 0.437639 0.423914 0.409449 
0.394298 0.37851 0.362132 0.34521 0.499375 0.498752 0.496885 0.493789 0.489486 
0.484006 0.477386 0.46967 0.460904 0.451138 0.440424 0.428817 0.416369 0.403133 
0.38916 0.3745 0.3592 0.343304 0.326854 0.474405 0.473811 0.472032 0.469081 
0.464977 0.459745 0.45342 0.446037 0.437639 0.42827 0.417978 0.406809 0.394814 
0.38204 0.368533 0.354341 0.339508 0.324075 0.308082 0.449432 0.448865 0.447166 
0.444347 0.440424 0.435421 0.429364 0.422289 0.414231 0.405231 0.395331 0.384573 
0.373003 0.360664 0.347601 0.333854 0.319467 0.304479 0.288927 0.424457 0.423914 
0.422289 0.419591 0.415834 0.411039 0.405231 0.39844 0.390697 0.38204 0.372505 
0.362132 0.350962 0.339035 0.32639 0.313068 0.299108 0.284546 0.269418 0.399479 
0.398959 0.397401 0.394814 0.39121 0.386608 0.381029 0.3745 0.367051 0.358712 
0.349519 0.339508 0.328714 0.317175 0.304928 0.29201 0.278457 0.264303 0.249583 
0.3745 0.374001 0.372505 0.37002 0.366557 0.362132 0.356766 0.350481 0.343304 
0.335263 0.32639 0.316717 0.306278 0.295106 0.283236 0.270702 0.257538 0.243776 
0.229448 0.349519 0.349039 0.347601 0.34521 0.341878 0.337618 0.332449 0.32639 
0.319467 0.311705 0.303132 0.293778 0.283673 0.272848 0.261336 0.249167 0.236374 
0.222986 0.209035 0.324537 0.324075 0.322689 0.320386 0.317175 0.313068 0.308082 
0.302236 0.29555 0.288048 0.279757 0.270702 0.260913 0.250417 0.239244 0.227423 
0.214984 0.201956 0.188366 0.299554 0.299108 0.297771 0.29555 0.292451 0.288488 
0.283673 0.278024 0.27156 0.264303 0.256276 0.247504 0.238012 0.227828 0.216977 
0.205488 0.193387 0.180702 0.167459 0.95 0.944098 0.929289 0.909861 0.888197 
0.865371 0.841886 0.817997 0.793845 0.769511 0.745049 0.720492 0.695862 0.671176 
0.646447 0.621681 0.596887 0.572069 0.547231 0.944098 0.938763 0.925 0.906459 
0.885436 0.863069 0.839922 0.816288 0.792334 0.76816 0.743826 0.719376 0.694836 
0.670227 0.645564 0.620856 0.596113 0.571339 0.546541 0.929289 0.925 0.913397 
0.896922 0.877526 0.856386 0.834169 0.811254 0.787868 0.76415 0.740192 0.716055 
0.691779 0.667397 0.642929 0.618392 0.593798 0.569158 0.544478 0.909861 0.906459 
0.896922 0.88274 0.865371 0.84589 0.825 0.80315 0.780626 0.757616 0.734246 
0.710604 0.686751 0.662732 0.638579 0.614319 0.58997 0.565546 0.541061 0.888197 
0.885436 0.877526 0.865371 0.85 0.832295 0.812917 0.792334 0.770871 0.748753 
0.726139 0.703141 0.679844 0.656307 0.632577 0.608688 0.584669 0.56054 0.536319 
0.865371 0.863069 0.856386 0.84589 0.832295 0.816288 0.798444 0.779206 0.758909 
0.737798 0.716055 0.693814 0.671176 0.648219 0.625 0.601566 0.577951 0.554186 
0.530293 0.841886 0.839922 0.834169 0.825 0.812917 0.798444 0.782055 0.76415 
0.745049 0.725 0.704196 0.682786 0.660884 0.638579 0.615943 0.593029 0.569884 
0.546541 0.52303 0.817997 0.816288 0.811254 0.80315 0.792334 0.779206 0.76415 
0.747512 0.729584 0.710604 0.690767 0.670227 0.649108 0.627508 0.605507 0.583167 
0.56054 0.537669 0.514588 0.793845 0.792334 0.787868 0.780626 0.770871 0.758909 
0.745049 0.729584 0.712772 0.694836 0.675963 0.656307 0.635995 0.61513 0.593798 
0.572069 0.55 0.527639 0.505025 0.769511 0.76816 0.76415 0.757616 0.748753 
0.737798 0.725 0.710604 0.694836 0.677898 0.659963 0.641182 0.621681 0.601566 
0.580924 0.55983 0.538345 0.516523 0.494406 0.745049 0.743826 0.740192 0.734246 
0.726139 0.716055 0.704196 0.690767 0.675963 0.659963 0.642929 0.625 0.6063 
0.586932 0.566987 0.546541 0.525658 0.504394 0.482796 0.720492 0.719376 0.716055 
0.710604 0.703141 0.693814 0.682786 0.670227 0.656307 0.641182 0.625 0.60789 
0.58997 0.571339 0.552088 0.532293 0.512019 0.491325 0.470259 0.695862 0.694836 
0.691779 0.686751 0.679844 0.671176 0.660884 0.649108 0.635995 0.621681 0.6063 
0.58997 0.5728 0.554888 0.536319 0.51717 0.497506 0.477386 0.456861 0.671176 
0.670227 0.667397 0.662732 0.656307 0.648219 0.638579 0.627508 0.61513 0.601566 
0.586932 0.571339 0.554888 0.537669 0.519766 0.501252 0.482192 0.462645 0.442663 
0.646447 0.645564 0.642929 0.638579 0.632577 0.625 0.615943 0.605507 0.593798 
0.580924 0.566987 0.552088 0.536319 0.519766 0.502506 0.484612 0.466146 0.447166 
0.427724 0.621681 0.620856 0.618392 0.614319 0.608688 0.601566 0.593029 0.583167 
0.572069 0.55983 0.546541 0.532293 0.51717 0.501252 0.484612 0.467318 0.449432 
0.43101 0.412101 0.596887 0.596113 0.593798 0.58997 0.584669 0.577951 0.569884 
0.56054 0.55 0.538345 0.525658 0.512019 0.497506 0.482192 0.466146 0.449432 
0.432109 0.414231 0.395848 0.572069 0.571339 0.569158 0.565546 0.56054 0.554186 
0.546541 0.537669 0.527639 0.516523 0.504394 0.491325 0.477386 0.462645 0.447166 
0.43101 0.414231 0.396883 0.379013 0.547231 0.546541 0.544478 0.541061 0.536319 
0.530293 0.52303 0.514588 0.505025 0.494406 0.482796 0.470259 0.456861 0.442663 
0.427724 0.412101 0.395848 0.379013 0.361643 0.522376 0.521722 0.519766 0.516523 
0.512019 0.50629 0.499375 0.491325 0.482192 0.472032 0.460904 0.448865 0.435974 
0.422289 0.407864 0.392752 0.377003 0.360664 0.34378 0.497506 0.496885 0.495025 
0.49194 0.487652 0.482192 0.475596 0.467905 0.459167 0.449432 0.438751 0.427178 
0.414765 0.401565 0.387628 0.373003 0.357738 0.341878 0.325463 0.472624 0.472032 
0.470259 0.467318 0.463227 0.458013 0.451707 0.444347 0.435974 0.426633 0.416369 
0.405231 0.393267 0.380524 0.367051 0.352891 0.33809 0.322689 0.306729 0.447732 
0.447166 0.445473 0.442663 0.438751 0.433762 0.427724 0.420668 0.412633 0.403657 
0.393782 0.383052 0.37151 0.3592 0.346165 0.332449 0.318091 0.303132 0.28761 
0.42283 0.422289 0.420668 0.417978 0.414231 0.409449 0.403657 0.396883 0.38916 
0.380524 0.371013 0.360664 0.349519 0.337618 0.325 0.311705 0.297771 0.283236 
0.268136 0.39792 0.397401 0.395848 0.393267 0.389672 0.385081 0.379516 0.373003 
0.365571 0.357252 0.34808 0.33809 0.327319 0.315803 0.303581 0.290687 0.277158 
0.26303 0.248335 0.373003 0.372505 0.371013 0.368533 0.365079 0.360664 0.35531 
0.349039 0.341878 0.333854 0.325 0.315347 0.304928 0.293778 0.28193 0.269418 
0.256276 0.242537 0.228233 0.34808 0.347601 0.346165 0.34378 0.340455 0.336204 
0.331046 0.325 0.318091 0.310344 0.301788 0.292451 0.282365 0.27156 0.260068 
0.24792 0.235147 0.221781 0.207851 0.323151 0.322689 0.321306 0.319008 0.315803 
0.311705 0.306729 0.300893 0.29422 0.286733 0.278457 0.269418 0.259645 0.249167 
0.238012 0.226211 0.213791 0.200782 0.187212 0.298217 0.297771 0.296438 0.29422 
0.291128 0.287171 0.282365 0.276726 0.270274 0.26303 0.255017 0.246259 0.236783 
0.226615 0.215781 0.204308 0.192225 0.179558 0.166333 0.925 0.920943 0.909861 
0.893934 0.875 0.854226 0.832295 0.809606 0.7864 0.762829 0.738992 0.714956 
0.690767 0.666458 0.642054 0.617574 0.593029 0.568433 0.543793 0.920943 0.917084 
0.906459 0.891028 0.872525 0.852098 0.830442 0.807971 0.784942 0.761515 0.737798 
0.713862 0.689758 0.665523 0.641182 0.616757 0.592262 0.56771 0.543108 0.909861 
0.906459 0.896922 0.88274 0.865371 0.84589 0.825 0.80315 0.780626 0.757616 
0.734246 0.710604 0.686751 0.662732 0.638579 0.614319 0.58997 0.565546 0.541061 
0.893934 0.891028 0.88274 0.870096 0.854226 0.836064 0.816288 0.795366 0.773615 
0.751253 0.72843 0.705254 0.681802 0.65813 0.634282 0.610289 0.586176 0.561965 
0.537669 0.875 0.872525 0.865371 0.854226 0.839922 0.823223 0.804744 0.784942 
0.76415 0.742609 0.720492 0.697924 0.675 0.65179 0.628348 0.604715 0.580924 
0.556999 0.532961 0.854226 0.852098 0.84589 0.836064 0.823223 0.807971 0.790835 
0.772239 0.752513 0.731905 0.710604 0.688753 0.666458 0.643805 0.620856 0.597663 
0.574265 0.550695 0.526978 0.832295 0.830442 0.825 0.816288 0.804744 0.790835 
0.775 0.757616 0.738992 0.719376 0.69896 0.677898 0.656307 0.634282 0.611896 
0.589208 0.566266 0.543108 0.519766 0.809606 0.807971 0.80315 0.795366 0.784942 
0.772239 0.757616 0.741398 0.723866 0.705254 0.685755 0.665523 0.644683 0.623337 
0.601566 0.579435 0.556999 0.534302 0.511379 0.7864 0.784942 0.780626 0.773615 
0.76415 0.752513 0.738992 0.723866 0.707383 0.689758 0.671176 0.65179 0.631727 
0.611091 0.58997 0.568433 0.546541 0.524343 0.501879 0.762829 0.761515 0.757616 
0.751253 0.742609 0.731905 0.719376 0.705254 0.689758 0.673083 0.655399 0.636854 
0.617574 0.597663 0.577212 0.556294 0.534973 0.513302 0.491325 0.738992 0.737798 
0.734246 0.72843 0.720492 0.710604 0.69896 0.685755 0.671176 0.655399 0.638579 
0.620856 0.602351 0.583167 0.563394 0.543108 0.522376 0.501252 0.479784 0.714956 
0.713862 0.710604 0.705254 0.697924 0.688753 0.677898 0.665523 0.65179 0.636854 
0.620856 0.603926 0.586176 0.56771 0.548613 0.528964 0.508828 0.488263 0.467318 
0.690767 0.689758 0.686751 0.681802 0.675 0.666458 0.656307 0.644683 0.631727 
0.617574 0.602351 0.586176 0.569158 0.551391 0.532961 0.513944 0.494406 0.474405 
0.453992 0.666458 0.665523 0.662732 0.65813 0.65179 0.643805 0.634282 0.623337 
0.611091 0.597663 0.583167 0.56771 0.551391 0.534302 0.516523 0.498129 0.479183 
0.459745 0.439866 0.642054 0.641182 0.638579 0.634282 0.628348 0.620856 0.611896 
0.601566 0.58997 0.577212 0.563394 0.548613 0.532961 0.516523 0.499375 0.481589 
0.463227 0.444347 0.425 0.617574 0.616757 0.614319 0.610289 0.604715 0.597663 
0.589208 0.579435 0.568433 0.556294 0.543108 0.528964 0.513944 0.498129 0.481589 
0.464393 0.446601 0.42827 0.409449 0.593029 0.592262 0.58997 0.586176 0.580924 
0.574265 0.566266 0.556999 0.546541 0.534973 0.522376 0.508828 0.494406 0.479183 
0.463227 0.446601 0.429364 0.41157 0.393267 0.568433 0.56771 0.565546 0.561965 
0.556999 0.550695 0.543108 0.534302 0.524343 0.513302 0.501252 0.488263 0.474405 
0.459745 0.444347 0.42827 0.41157 0.394298 0.376502 0.543793 0.543108 0.541061 
0.537669 0.532961 0.526978 0.519766 0.511379 0.501879 0.491325 0.479784 0.467318 
0.453992 0.439866 0.425 0.409449 0.393267 0.376502 0.3592 0.519115 0.518466 
0.516523 0.513302 0.508828 0.503135 0.496264 0.488263 0.479183 0.469081 0.458013 
0.446037 0.433211 0.419591 0.405231 0.390184 0.3745 0.358225 0.341403 0.494406 
0.493789 0.49194 0.488874 0.484612 0.479183 0.472624 0.464977 0.456286 0.446601 
0.435974 0.424457 0.412101 0.398959 0.385081 0.370516 0.35531 0.339508 0.323151 
0.46967 0.469081 0.467318 0.464393 0.460324 0.455138 0.448865 0.441542 0.433211 
0.423914 0.413698 0.40261 0.390697 0.378007 0.364587 0.350481 0.335733 0.320386 
0.304479 0.44491 0.444347 0.442663 0.439866 0.435974 0.43101 0.425 0.417978 
0.409979 0.401043 0.39121 0.380524 0.369029 0.356766 0.34378 0.330112 0.315803 
0.300893 0.28542 0.420129 0.419591 0.417978 0.415299 0.41157 0.406809 0.401043 
0.394298 0.386608 0.378007 0.368533 0.358225 0.347122 0.335263 0.322689 0.309439 
0.29555 0.28106 0.266004 0.395331 0.394814 0.393267 0.390697 0.387117 0.382546 
0.377003 0.370516 0.363113 0.354826 0.345687 0.335733 0.325 0.313523 0.301341 
0.288488 0.275 0.260913 0.246259 0.370516 0.37002 0.368533 0.366064 0.362623 
0.358225 0.352891 0.346643 0.339508 0.331513 0.322689 0.313068 0.302684 0.291569 
0.279757 0.267282 0.254178 0.240477 0.226211 0.345687 0.34521 0.34378 0.341403 
0.33809 0.333854 0.328714 0.322689 0.315803 0.308082 0.299554 0.290247 0.280191 
0.269418 0.257959 0.245845 0.233107 0.219776 0.205881 0.320846 0.320386 0.319008 
0.316717 0.313523 0.309439 0.304479 0.298662 0.29201 0.284546 0.276294 0.267282 
0.257538 0.247089 0.235965 0.224194 0.211806 0.198829 0.185291 0.295994 0.29555 
0.29422 0.29201 0.288927 0.284983 0.280191 0.274569 0.268136 0.260913 0.252922 
0.244189 0.234739 0.224597 0.213791 0.202347 0.190293 0.177656 0.164461 0.9 
0.896922 0.888197 0.875 0.858579 0.839922 0.819722 0.798444 0.776393 0.753779 
0.730742 0.707383 0.683772 0.659963 0.635995 0.611896 0.587689 0.563394 0.539023 
0.896922 0.893934 0.885436 0.872525 0.856386 0.837981 0.817997 0.796899 0.775 
0.752513 0.729584 0.706316 0.682786 0.659045 0.635137 0.611091 0.586932 0.562679 
0.538345 0.888197 0.885436 0.877526 0.865371 0.85 0.832295 0.812917 0.792334 