# vtk DataFile Version 1.0
Unstructured Grid Example
ASCII

DATASET UNSTRUCTURED_GRID
POINTS 27 float
0.0 0.0 0.0
1.0 0.0 0.0
2.0 0.0 0.0
0.0 1.0 0.0
1.0 1.0 0.0
2.0 1.0 0.0
0.0 0.0 1.0
1.0 0.0 1.0
2.0 0.0 1.0
0.0 1.0 1.0
1.0 1.0 1.0
2.0 1.0 1.0
0.0 1.0 2.0
1.0 1.0 2.0
2.0 1.0 2.0
0.0 1.0 3.0
1.0 1.0 3.0
2.0 1.0 3.0
0.0 1.0 4.0
1.0 1.0 4.0
2.0 1.0 4.0
0.0 1.0 5.0
1.0 1.0 5.0
2.0 1.0 5.0
0.0 1.0 6.0
1.0 1.0 6.0
2.0 1.0 6.0

CELLS 12 63
8 0 1 4 3 6 7 10 9
8 1 2 5 4 7 8 11 10
4 7 10 9 12
4 8 11 10 14
6 15 16 17 14 13 12
6 18 15 19 16 20 17
4 22 23 20 19
3 21 22 18
3 22 19 18
2 23 26
2 21 24
1 25

CELL_TYPES 12
12
12
10
10
7
6
9
5
5
3
3
1


POINT_DATA 27
SCALARS scalars float
LOOKUP_TABLE default
0.0
1.0
2.0
3.0
4.0
5.0
6.0
7.0
8.0
9.0
10.0
11.0
12.0
13.0
14.0
15.0
16.0
17.0
18.0
19.0
20.0
21.0
22.0
23.0
24.0
25.0
26.0

VECTORS vectors float
1 0 0
1 1 0
0 2 0
1 0 0
1 1 0
0 2 0
1 0 0
1 1 0
0 2 0
1 0 0
1 1 0
0 2 0
0 0 1
0 0 1
0 0 1
0 0 1
0 0 1
0 0 1
0 0 1
0 0 1
0 0 1
0 0 1
0 0 1
0 0 1
0 0 1
0 0 1
0 0 1
