# vtk DataFile Version 2.0
CT scan data of human heart, courtesy by Henk Mastenbroek RuG
ASCII
           
DATASET STRUCTURED_POINTS
DIMENSIONS    32   32   12
ORIGIN    0.000   0.000   0.000
SPACING    1.000   1.000   4.000
           
POINT_DATA   12288
SCALARS scalars float
LOOKUP_TABLE default

    16    15    16    18    14    10    12    17    17    14    11    11     8     8    12    14    12    13    20    24    23    20    16    16    15    16    17    22    24    24    26    30
    18    13    15    16    14     6    10    18    18    14    10     6     6     9    13    13    10    10    17    20    19    18    20    21    19    20    24    26    24    24    27    31
    15    10    11    13    10     7     8    14    16    11     6     3     6    11    15    15    12     9    12    13    16    14    20    27    27    27    27    26    20    20    26    31
    12    13    12    10     7     8    11    13    11     7     6     6     6     8     8    10    13    13    11    12    14    18    23    29    33    32    30    29    24    19    19    23
     9    10     9     9    10     9    10     7     4     4     4     4     5     5     3     5     9    14    14    13    16    24    32    37    38    35    33    31    23    15    15    20
     7     6     7     7    11    12     7     3     3     6     7     6     4     3     3     5     8    11    13    13    18    25    32    36    39    41    37    28    19    12    10    14
     5     4     6     7     9     7     6     5     5     7     9     8     8     7     5     4     6    11    15    22    24    29    33    34    38    39    34    27    21    16    14    18
     7     6     6     8     9     7     7    12    12     8     6    11    12     7     3     5    14    15    19    24    29    31    34    32    32    32    30    26    21    18    18    23
    15    10     2     2     6     7     6     8    11    10    11    13    11     5     5    13    20    22    23    28    29    22    21    24    24    29    30    23    16    20    28    35
    12    10     7     8    11    10     9     9    12    15    15    13     8     6    11    19    27    28    31    27    21    19    22    19    18    22    23    19    17    23    29    26
    10     8     9    10    10    11    12    14    19    23    22    16     9    11    20    28    30    28    28    28    26    23    19    15    15    17    17    13    14    20    22    22
    12     8     9     7     6    10    14    17    21    26    26    20    15    19    29    37    36    33    32    31    29    23    17    15    17    19    17    13    17    22    26    27
    13     9     6     5    10    13    13    15    21    29    36    35    30    32    37    44    43    41    40    34    27    22    22    25    27    26    22    22    28    31    36    35
    14     8     5     9    12    12     7    11    27    42    49    55    52    46    47    56    66    62    51    39    30    25    25    29    32    31    29    27    30    35    35    32
    13    10     6     7    11    13    11    14    33    52    63    70    71    67    71    79    89    78    60    45    32    31    31    32    31    33    31    29    32    35    32    27
    11    13    13     5     7    14    14    17    26    44    58    71    73    72    72    76    83    68    49    38    35    36    34    32    30    33    38    39    36    31    22    20
    11     6     4     7     6    11    25    29    37    54    76    99   115   112   105   102    96    87    78    57    43    41    41    39    38    38    28    27    29    33    22    13
    10     4     5    13    14    14    22    33    47    64    80    92   103   107   106    99    95    91    80    61    46    41    38    36    30    24    17    19    26    30    23    14
     7     4     6    10    13    16    21    29    48    62    73    90   103   107    99    93    90    83    71    54    41    36    31    26    24    27    23    20    20    21    18    11
     6     5     7     8    12    17    23    28    41    51    63    86   103   103    89    85    83    76    63    46    36    34    32    28    29    36    27    20    20    16    11     9
     7     6     8    12    15    21    24    25    31    39    50    65    78    82    75    73    66    55    49    43    37    34    31    31    31    34    29    24    21    19    21    24
     6     7    12    15    20    25    27    24    30    41    48    47    53    60    60    54    49    45    49    49    43    31    28    35    43    34    24    15    12    26    39    33
     7     5    10    16    22    25    31    31    33    39    46    45    47    54    56    48    41    40    45    49    50    42    35    39    48    39    26    18    20    29    35    28
    21    14     9     8    16    24    31    33    33    37    38    38    43    41    42    39    34    36    46    57    55    49    49    51    51    40    27    30    36    34    31    28
    20    16    13    12    17    23    34    38    36    40    35    37    43    40    41    43    41    41    48    55    52    51    55    54    47    39    35    41    44    37    32    29
    20    18    17    19    19    22    33    37    33    35    36    40    44    43    42    47    47    40    41    46    46    49    56    53    44    39    47    47    43    39    37    33
    21    25    28    30    29    34    43    41    31    34    39    43    44    45    44    49    52    51    51    49    51    52    52    49    38    29    34    42    47    38    33    27
    25    29    34    34    34    38    45    42    32    35    42    46    46    47    46    50    52    50    50    46    52    53    51    44    38    27    34    43    47    37    33    27
    42    43    40    38    35    32    34    35    32    35    44    55    57    54    47    48    51    46    37    35    43    45    44    45    42    38    44    47    49    44    40    33
    44    45    39    34    36    37    31    29    34    39    42    49    54    48    38    40    42    46    49    51    45    35    36    45    54    51    45    44    40    39    36    28
     0     0     0     0     0     0     0     0     0     0     0     0     0     0     0     0     0     0     0     0     0     0     0     0     0     0     0     0     0     0     0     0
     0     0     0     0     0     0     0     0     0     0     0     0     0     0     0     0     0     0     0     0     0     0     0     0     0     0     0     0     0     0     0     0
    10    12    12    13    11     8     7     6     5     6     8    10     9     9     6     7     6    12    18    19    14    11    11    17    22    23    27    35    34    31    26    23
    11    11    11    12    10     4     3     8    11     6     5     6     7     4     3     5     7    12    15    11    11    16    18    21    24    24    29    28    29    29    31    31
    12     9     9     7     6     2     6     8    10     6     3     4     7     6     4     6     8    11     9     7    10    18    24    25    27    28    29    26    26    30    34    36
    14     8     7     6     4     3     7     9     7     6     3     3     6     7     6     6     7     6     5     7    11    21    31    33    34    33    32    24    22    31    40    38
    10     6     5     5     5     4     7     7     3     5     2     3     7     6     4     4     4     5     9    11    13    22    31    36    36    36    30    22    21    33    40    36
     5     4     5     7    10     9     7     6     1     1     4     5     5     2     2     6     7     9    14    19    18    25    33    34    37    36    28    22    15    20    25    25
     5     3     3     5    11    11     8     4     3     4     8     5     2     3     3     6     9    14    21    23    24    27    31    33    36    34    28    21    16    17    18    23
     6     4     4     5     9     7     7     8     5     4     8    10     9     9     7     7    14    26    32    34    27    24    26    28    28    28    25    20    18    19    23    29
     9     7     3     5    10    11    11    12    12    11    17    23    17    15    22    27    28    34    37    33    27    23    22    20    26    25    18     9    12    17    19    25
    12    13     8     9    11    12    11    10    12    17    30    35    32    31    41    46    45    47    40    26    15    14    15    16    24    25    16     7    13    21    20    18
    10     7     5    11    16    16    11    13    26    36    45    48    51    57    69    75    71    62    43    26    22    21    15    10    13    17    15    12    15    20    21    25
    15    10    10    16    16    14    16    27    45    58    69    73    75    82    94    98    92    81    66    47    32    21    20    16    10    10     8     8    12    18    24    31
    13    10    12    13    14    20    26    37    55    78    90    94    99   109   118   121   112    98    85    66    45    30    20    18    17    15    13    14    18    22    23    22
    10     8    10    11    17    22    28    40    64    92   108   116   119   131   140   141   132   115    98    80    57    40    31    26    21    20    20    22    28    30    27    19
    11     9     4     8    17    25    41    65    89   109   126   138   141   151   163   166   161   149   124    96    72    53    39    31    28    24    27    31    35    25    19    16
    11     8     5     6    13    24    42    68    93   112   129   143   147   151   157   159   159   152   131   105    78    57    42    34    35    29    28    28    29    22    16    15
    12     9     8     8    10    21    41    63    88   107   129   148   151   146   140   145   149   150   132   103    77    61    46    39    36    32    26    26    24    17    12     9
    12    11    13    15    17    27    47    74    97   116   138   149   152   141   135   146   157   163   145   111    84    65    50    38    27    23    22    27    23    17    10     4
     6     6    11    19    23    32    43    63    86   108   124   140   148   145   141   145   149   144   119    86    63    51    40    30    19    19    19    24    25    22    14     4
     4     3     8    13    24    31    37    52    75    93   106   126   141   141   137   133   130   119    93    64    46    36    31    29    27    24    16    16    21    20    13     9
     5     9    18    27    38    46    52    64    83   102   124   139   147   147   152   150   140   119    90    62    49    45    40    32    26    24    20    24    19    13    15    22
    11    12    15    23    37    48    50    54    68    96   115   120   124   129   131   127   111    92    78    62    48    48    44    36    34    36    35    35    31    25    22    19
    10    12    25    40    50    53    53    59    75    91    93    90    95   104   105    99    87    77    68    55    43    42    50    49    42    33    32    30    33    35    30    23
    11    11    24    43    49    48    54    63    69    70    66    62    66    72    67    59    61    62    58    53    49    49    55    54    44    29    26    30    36    36    31    28
    26    21    21    30    49    57    56    51    54    55    51    46    45    43    46    51    56    62    66    64    61    52    45    45    49    42    40    38    27    24    23    21
    27    28    27    29    43    55    61    55    53    53    48    47    48    49    46    50    52    54    62    64    62    53    48    47    47    46    43    38    28    26    23    20
    35    33    24    28    45    57    56    44    40    46    47    47    50    51    51    52    49    44    50    53    58    60    56    45    40    40    40    33    31    33    32    23
    44    40    32    35    47    55    49    38    37    44    50    54    56    55    53    53    52    48    47    49    57    57    51    38    35    38    40    35    32    33    29    24
    47    45    42    37    36    41    47    42    38    43    53    61    63    57    50    51    52    45    44    47    51    49    40    33    32    34    40    42    37    30    26    23
    43    40    33    32    33    38    42    42    42    42    43    50    53    51    47    47    41    38    43    48    44    37    36    39    38    35    32    33    31    24    18    14
     0     0     0     0     0     0     0     0     0     0     0     0     0     0     0     0     0     0     0     0     0     0     0     0     0     0     0     0     0     0     0     0
     0     0     0     0     0     0     0     0     0     0     0     0     0     0     0     0     0     0     0     0     0     0     0     0     0     0     0     0     0     0     0     0
     3     6     5     6     7     6     5     5     7     7     2     6    10     8     3     3     4     8    15    17    16    15    18    20    20    23    29    30    27    26    27    29
     7     8     7     8     8     5     3     5     8     7     2     4     7     8     5     4     6    10    11    11    10     9    17    23    27    25    27    31    33    34    36    37
     5     7     8     7     7     6     4     4     5     2     2     5     5     3     5     6    11    11     9    10    15    18    15    22    30    28    27    29    33    35    37    38
     8     7     6     5     3     5     4     4     4     3     4     6     7     4     3     7     8     7     8    10    16    22    21    26    31    29    27    29    36    40    38    32
    10     6     3     2     4     4     7     7     5     4     5     7     8     6     5     7     4     6    13    13    14    25    31    33    33    27    21    23    35    41    34    26
     9     6     5     3     5     7     9     8     4     2     5     7     7     6    10     8     7    13    19    17    16    27    33    36    32    24    16    20    29    32    26    19
    10     6     4     3     5    10    12     9     5     3     8    10    11    14    15    15    20    25    27    24    20    27    31    33    30    26    17    14    15    17    18    19
    14     7     4     5     8    10    12    11    12    14    23    27    33    34    36    42    45    46    42    35    25    21    23    25    28    27    18    12    11    14    20    25
    14     7     4     5     8    10    14    15    16    22    32    39    43    47    52    57    58    55    48    38    26    22    22    24    27    24    16    11    11    15    21    27
    12     9    10     7     7    11    19    22    25    37    54    60    62    69    80    86    80    71    60    43    30    24    17    19    22    16     6     9    15    18    20    25
    10    12    15    14    16    24    31    41    62    83    99   108   110   115   124   132   131   122    98    74    56    42    32    22    16     7     6     8    14    11    11    20
    11     6     9    17    26    33    35    51    83   108   121   126   130   138   149   150   151   148   133   108    80    51    32    22    17    14    11    11    15    23    29    39
    11    14    24    29    31    37    51    79   103   125   140   141   138   139   144   159   170   173   159   133   107    75    45    20     8     8    10    13    19    22    22    23
    15    12    17    24    34    52    68    90   118   135   136   131   135   140   140   149   161   168   173   161   135    92    58    37    30    23    15    13    15    17    16    18
    13    12    14    27    41    51    68    96   124   136   126   118   122   133   145   154   161   171   186   179   137    94    60    47    39    31    27    21    19    16    10     7
    16    15    17    31    45    60    81   113   136   139   121   105   107   121   130   141   159   181   195   191   150   106    71    50    40    34    36    24    15     9     7     4
    20    17    22    36    50    62    85   115   138   139   122   111   111   112   116   132   161   189   199   181   143   102    68    47    37    31    31    24    20    16    11     3
    16    27    40    49    51    61    86   113   129   137   136   131   122   112   115   141   172   190   183   170   136    93    57    34    28    26    27    23    19    13     7     1
    16    27    44    53    56    67    88   110   124   137   143   141   132   124   132   153   176   187   177   159   127    87    50    31    26    26    26    22    18    12     4     1
    12    22    40    50    58    71    83    98   116   135   154   165   162   162   169   176   181   176   152   124    90    63    41    26    25    25    23    23    20    12     9    11
    15    27    45    60    69    79    88   101   119   141   164   174   179   183   192   187   181   168   143   109    80    58    40    30    28    24    24    24    23    18    19    23
    11    20    38    52    62    68    76    91   111   134   154   159   167   178   185   172   154   137   113    87    69    56    43    33    31    30    29    27    24    24    27    26
    15    20    31    46    60    67    69    77    94   116   129   129   135   146   155   143   123   105    91    71    56    49    46    40    40    38    35    30    27    22    20    19
    25    26    45    65    77    82    81    86    93   101   101   101   107   115   117   107    87    78    71    59    51    52    50    38    30    26    30    33    34    31    29    30
    22    31    50    66    68    67    71    77    76    76    83    87    87    80    73    73    75    66    59    63    64    55    39    31    27    27    29    28    28    26    26    27
    26    32    48    57    62    60    62    70    73    72    70    67    66    66    66    69    72    68    55    46    42    38    38    39    34    32    27    23    19    25    25    21
    38    39    42    52    71    69    57    56    62    62    58    60    65    60    46    44    54    64    62    53    47    41    42    41    39    35    28    22    22    24    22    18
    52    41    35    45    65    63    49    44    51    58    63    65    66    65    50    44    51    61    63    59    56    46    36    34    36    32    21    19    29    29    26    26
    51    37    36    41    49    48    42    42    51    54    59    66    61    55    47    46    49    54    57    59    55    45    34    31    35    31    24    20    26    25    24    27
    46    38    37    39    44    46    42    46    53    57    58    62    55    47    43    45    49    50    49    47    43    36    33    31    29    28    26    24    22    19    16    19
    39    36    34    37    46    46    45    50    56    58    56    57    53    48    46    46    49    49    40    33    28    34    38    35    27    21    19    16    16    11     9    14
     0     0     0     0     0     0     0     0     0     0     0     0     0     0     0     0     0     0     0     0     0     0     0     0     0     0     0     0     0     0     0     0
     2     4     5     3     7     6     7     6     7     5     1     7    10     6     1     3     7    13    18    17    16    20    18    15    15    21    28    31    30    30    29    23
     5     2     2     1     4     7     5     5     9    11     4     5    10    10     4     3     6    11    14    13    15    18    17    16    19    24    28    30    30    29    28    22
     3     5     8     8     6     4     3     6     7     7     7     7     6     7     5     5     7     5     5     7    12    18    24    24    24    24    31    35    37    37    30    21
     4     5     6     5     6     3     3     4     4     8     9     6     6     7     6     6    11    11     8     9    13    17    22    27    29    28    31    33    32    30    27    19
     7     7     7     7     5     4     5     4     5     7    10    11    11    10    11    11    14    14    16    18    20    23    26    28    29    27    32    35    29    21    20    19
    10     8     7     7     6     8     9     9     9     9    10    12    18    21    25    27    23    22    27    26    29    36    32    28    21    24    30    32    26    14     9     9
    10    10     9     8     7    11    14    14    15    16    16    23    34    42    46    46    43    40    38    33    31    36    34    29    22    20    21    19    15    10     8    12
     9     6    10    13    13    19    24    26    29    33    41    55    74    80    77    81    82    71    61    48    40    36    36    31    22    18    12     9     9    12    18    24
    11     7    10    17    20    22    28    36    47    57    69    87   107   119   115   115   114   105    91    70    54    46    38    32    23    17    11     9     9    14    20    25
    12    12    11    17    21    22    33    50    69    89   102   113   126   140   142   142   142   135   120    96    75    59    44    29    21    15    10    11    12    14    19    21
    16    17    21    24    29    40    59    83   106   129   134   131   134   143   150   157   162   165   163   146   113    82    52    29    17    14     9     9     9    12    21    32
    18    18    24    29    37    51    74    99   124   143   141   135   132   141   149   156   169   180   183   172   137   101    64    33    20    15    10    10    11    16    25    35
    15    12    19    33    41    57    83   107   127   137   132   125   120   129   139   150   171   189   189   174   145   115    79    41    21    14    12    15    20    26    32    36
    21    30    45    54    61    80   109   132   139   125   104    94    96    96   106   130   156   174   184   192   188   161   115    62    29    20    15     9     7    12    20    26
    25    33    47    59    77   100   116   132   144   130   102    86    90    93    93   109   134   162   193   212   205   169   126    85    53    31    18    14    16    16    15    12
    38    47    55    68    84   106   129   141   133   117    91    72    74    84    96   113   134   165   196   209   197   175   141   100    58    38    29    20    13    13    11     7
    41    46    58    75    91   109   129   145   141   121    97    78    70    78    94   112   135   167   201   214   201   173   133    92    56    29    18    13    13    13     7     3
    43    52    63    83   100   108   124   141   140   127   109    96    93    97   108   126   147   172   197   206   192   156   109    66    37    24    20    18    12     7     3     1
    44    58    72    88   101   112   130   143   144   142   135   124   118   121   132   145   161   183   202   207   182   143    98    59    38    25    22    16    11     5     3     2
    45    58    72    83    97   110   127   137   149   165   173   165   158   158   170   182   192   201   204   186   145   105    73    51    40    31    24    21    15     7     6     9
    45    53    65    77    91   105   114   127   143   168   189   197   196   201   210   213   205   190   169   139   102    70    46    37    34    33    33    29    19    11    18    20
    46    55    68    79    89    99   111   122   136   160   186   200   206   209   213   213   197   174   146   118    88    61    42    33    32    34    37    29    20    16    23    24
    44    50    67    78    83    91   102   112   123   139   158   174   187   186   183   177   158   132   104    80    64    52    43    33    26    25    33    32    31    27    27    29
    52    53    64    75    82    90    98   105   114   124   135   154   163   161   151   144   126   103    79    61    53    49    45    36    26    23    31    35    38    35    33    30
    45    49    62    71    77    84    88    87    95    98   101   110   119   122   111    99    85    75    61    55    49    43    35    30    28    23    27    33    36    34    32    28
    33    45    63    76    76    74    77    85    84    84    91    93    86    77    75    75    73    63    58    57    53    37    29    26    30    28    25    24    24    26    28    31
    41    50    59    65    58    57    69    83    80    71    71    73    72    69    71    67    55    43    37    40    49    45    34    28    29    31    24    18    17    22    23    22
    40    37    47    63    67    56    58    62    56    50    55    62    64    51    46    53    58    56    50    47    45    43    39    33    26    17    15    15    16    18    18    19
    40    35    32    46    50    45    48    54    60    56    56    58    54    57    59    64    63    58    47    31    29    31    35    31    23    14    18    20    18    12    12    16
    40    32    31    40    44    40    38    46    53    54    58    63    60    58    57    50    49    50    47    41    39    36    32    25    17     9     9    14    13     8    11    20
    44    35    33    35    40    36    37    40    45    48    49    55    55    54    53    53    48    38    29    29    33    35    35    27    13     6     6     8     7     3     6    15
    44    42    36    35    40    42    43    45    40    43    55    66    57    50    47    44    42    36    29    27    29    33    34    24    12     2     2     3     2     1     4    13
     1     2     4     4     4     6     6     5     5     7     9     8     8     7     6     9     9    14    12    11    10    11    11    10    14    23    26    24    26    22    19    16
     3     1     1     1     2     4     7     5     9    11    11     7     6     6     7    10     9    13    13    11    10    12    15    12    15    21    22    21    25    23    19    15
     4     4     4     2     2     3     6     9    10     9    10     8     8     9     6     6     6     8     8     9    15    22    21    18    21    24    27    28    27    18    14    14
     3     5     9     7     4     4     7     9     9    11    10    10    10     9     7    10    10     9     6    11    19    28    28    26    26    31    29    26    24    19    14    12
     7     7    11    10     6     6     9    13    16    16    13    14    20    21    19    18    20    20    20    21    27    31    34    35    35    29    18    10    13    12    12    14
    12    13    11    12     9     9    16    17    20    20    21    29    37    40    43    46    46    43    39    36    35    36    40    40    36    29    19    13    11    11     9    12
    15    19    19    12    11    15    18    22    27    34    42    55    71    79    81    81    75    68    62    57    50    48    47    44    37    28    18    11     7     7     7    12
    16    21    27    26    24    27    31    38    48    63    79    97   114   124   123   118   110   104   100    89    74    65    56    43    32    22    11     5     5    12    16    20
    13    15    27    36    38    41    51    66    83   101   120   134   142   151   150   146   148   150   147   134   110    81    59    42    29    19     9     8    11    23    25    24
    20    25    37    43    46    49    63    86   106   123   137   143   146   154   154   154   159   170   173   166   140   105    73    49    32    17     9     9    12    19    24    25
    28    40    46    48    55    65    84   107   124   136   136   133   133   136   139   146   160   173   185   188   176   141    98    60    33    18     9    13    16    20    20    22
    36    49    54    58    69    85   107   128   134   136   126   115   114   118   121   131   150   171   194   204   198   168   118    76    45    24    13    17    22    25    27    27
    44    51    56    67    79    96   118   135   134   127   113    97    96   105   112   116   136   163   186   199   198   178   134    91    59    30    20    18    26    30    31    24
    54    58    67    80    87    99   122   138   135   118    95    77    75    82    92   106   122   143   167   190   204   198   161   109    61    34    22    23    27    29    27    16
    61    67    77    86    92   103   124   140   138   115    84    68    64    68    80    96   112   129   159   189   206   204   178   125    75    40    22    24    28    29    24    13
    46    61    77    83    96   118   138   150   140   116    83    67    66    69    80    96   116   136   165   193   200   194   169   128    84    47    26    19    20    18     9     4
    66    74    81    88   100   125   150   155   138   113    87    64    56    66    83   102   114   137   163   187   201   198   171   129    84    50    26    20    21    18     8     0
    74    83    86    90   106   130   152   163   154   137   111    81    63    75    91   108   135   163   184   197   207   196   161   106    55    28    23    22    16     5     3     3
    75    84    85    93   111   130   146   158   160   158   148   127   118   122   128   140   161   183   201   210   206   186   137    86    49    33    26    16     5     3     5     5
    73    83    87    91   103   120   143   159   170   178   178   168   155   153   159   176   194   212   220   209   188   163   117    71    40    29    27    18     7     5     6     9
    67    72    76    85    93   105   124   149   176   196   209   208   198   192   199   211   215   217   206   182   151   120    88    59    36    27    23    16    11    11    17    18
    67    70    77    84    86    93   102   120   151   186   216   227   228   227   223   221   204   181   158   130    98    76    60    56    50    38    23    12    19    28    33    26
    68    72    79    81    85    94   104   113   131   160   195   213   215   212   210   203   183   156   129   103    79    62    53    50    45    39    30    23    27    32    31    24
    64    70    77    79    86    95   106   110   116   129   149   169   175   172   164   151   128   104    83    63    51    44    38    31    31    35    43    38    35    33    33    28
    63    72    79    80    86    94   103   108   113   116   126   142   149   142   130   115    95    80    69    56    43    35    29    26    28    34    44    40    33    30    33    29